;
;	File 'topol.top' was generated
;	By user: t.yukako (501)
;	On host: TYukakonoMacBook-Air.local
;	At date: Tue Jun  2 10:14:45 2026
;
;	This is a standalone topology file
;
;	Created by:
;	                    :-) GROMACS - gmx pdb2gmx, 2019.6 (-:
;	
;	Executable:   /Users/t.yukako/miniconda3/bin.AVX2_256/gmx
;	Data prefix:  /Users/t.yukako/miniconda3
;	Working dir:  /Users/t.yukako/Desktop/Ang_2/MD
;	Command line:
;	  gmx pdb2gmx -f AngIIcom_clean.pdb -o processed.gro -water tip3p -ignh
;	Force field was read from the standard GROMACS share directory.
;

; Include forcefield parameters
#include "amber99sb-ildn.ff/forcefield.itp"

; Include chain topologies
#include "topol_Protein_chain_A.itp"
#include "topol_Ion_chain_A2.itp"
#include "topol_Protein_chain_B.itp"

; Include water topology
#include "amber99sb-ildn.ff/tip3p.itp"

#ifdef POSRES_WATER
; Position restraint for each water oxygen
[ position_restraints ]
;  i funct       fcx        fcy        fcz
   1    1       1000       1000       1000
#endif

; Include topology for ions
#include "amber99sb-ildn.ff/ions.itp"

[ system ]
; Name
Protein in water

[ molecules ]
; Compound        #mols
Protein_chain_A     1
Ion_chain_A2        1
Protein_chain_B     1
SOL         33069
NA               27
