
;	Command line:    :-) GROMACS - gmx pdb2gmx, 2019.6 (-:
;	
;	Executable:   /Users/t.yukako/miniconda3/bin.AVX2_256/gmx
;	Data prefix:  /Users/t.yukako/miniconda3
;	Working dir:  /Users/t.yukako/Desktop/Ang_2/MD
;	Command line:
;	  gmx pdb2gmx -f AngIcom_clean.pdb -o processed.gro -p topol.top -water tip3p -ignh
;	Force field was read from the standard GROMACS share directory.
;

[ moleculetype ]
; Name            nrexcl
Protein_chain_B     3

[ atoms ]
;   nr       type  resnr residue  atom   cgnr     charge       mass  typeB    chargeB      massB
; residue   1 ASP rtp NASP q  0.0
     1         N3      1    ASP      N      1     0.0782      14.01
     2          H      1    ASP     H1      2       0.22      1.008
     3          H      1    ASP     H2      3       0.22      1.008
     4          H      1    ASP     H3      4       0.22      1.008
     5         CT      1    ASP     CA      5     0.0292      12.01
     6         HP      1    ASP     HA      6     0.1141      1.008
     7         CT      1    ASP     CB      7    -0.0235      12.01
     8         HC      1    ASP    HB1      8    -0.0169      1.008
     9         HC      1    ASP    HB2      9    -0.0169      1.008
    10          C      1    ASP     CG     10     0.8194      12.01
    11         O2      1    ASP    OD1     11    -0.8084         16
    12         O2      1    ASP    OD2     12    -0.8084         16
    13          C      1    ASP      C     13     0.5621      12.01
    14          O      1    ASP      O     14    -0.5889         16   ; qtot 0
; residue   2 ARG rtp ARG  q +1.0
    15          N      2    ARG      N     15    -0.3479      14.01
    16          H      2    ARG      H     16     0.2747      1.008
    17         CT      2    ARG     CA     17    -0.2637      12.01
    18         H1      2    ARG     HA     18      0.156      1.008
    19         CT      2    ARG     CB     19    -0.0007      12.01
    20         HC      2    ARG    HB1     20     0.0327      1.008
    21         HC      2    ARG    HB2     21     0.0327      1.008
    22         CT      2    ARG     CG     22      0.039      12.01
    23         HC      2    ARG    HG1     23     0.0285      1.008
    24         HC      2    ARG    HG2     24     0.0285      1.008
    25         CT      2    ARG     CD     25     0.0486      12.01
    26         H1      2    ARG    HD1     26     0.0687      1.008
    27         H1      2    ARG    HD2     27     0.0687      1.008
    28         N2      2    ARG     NE     28    -0.5295      14.01
    29          H      2    ARG     HE     29     0.3456      1.008
    30         CA      2    ARG     CZ     30     0.8076      12.01
    31         N2      2    ARG    NH1     31    -0.8627      14.01
    32          H      2    ARG   HH11     32     0.4478      1.008
    33          H      2    ARG   HH12     33     0.4478      1.008
    34         N2      2    ARG    NH2     34    -0.8627      14.01
    35          H      2    ARG   HH21     35     0.4478      1.008
    36          H      2    ARG   HH22     36     0.4478      1.008
    37          C      2    ARG      C     37     0.7341      12.01
    38          O      2    ARG      O     38    -0.5894         16   ; qtot 1
; residue   3 VAL rtp VAL  q  0.0
    39          N      3    VAL      N     39    -0.4157      14.01
    40          H      3    VAL      H     40     0.2719      1.008
    41         CT      3    VAL     CA     41    -0.0875      12.01
    42         H1      3    VAL     HA     42     0.0969      1.008
    43         CT      3    VAL     CB     43     0.2985      12.01
    44         HC      3    VAL     HB     44    -0.0297      1.008
    45         CT      3    VAL    CG1     45    -0.3192      12.01
    46         HC      3    VAL   HG11     46     0.0791      1.008
    47         HC      3    VAL   HG12     47     0.0791      1.008
    48         HC      3    VAL   HG13     48     0.0791      1.008
    49         CT      3    VAL    CG2     49    -0.3192      12.01
    50         HC      3    VAL   HG21     50     0.0791      1.008
    51         HC      3    VAL   HG22     51     0.0791      1.008
    52         HC      3    VAL   HG23     52     0.0791      1.008
    53          C      3    VAL      C     53     0.5973      12.01
    54          O      3    VAL      O     54    -0.5679         16   ; qtot 1
; residue   4 TYR rtp TYR  q  0.0
    55          N      4    TYR      N     55    -0.4157      14.01
    56          H      4    TYR      H     56     0.2719      1.008
    57         CT      4    TYR     CA     57    -0.0014      12.01
    58         H1      4    TYR     HA     58     0.0876      1.008
    59         CT      4    TYR     CB     59    -0.0152      12.01
    60         HC      4    TYR    HB1     60     0.0295      1.008
    61         HC      4    TYR    HB2     61     0.0295      1.008
    62         CA      4    TYR     CG     62    -0.0011      12.01
    63         CA      4    TYR    CD1     63    -0.1906      12.01
    64         HA      4    TYR    HD1     64     0.1699      1.008
    65         CA      4    TYR    CE1     65    -0.2341      12.01
    66         HA      4    TYR    HE1     66     0.1656      1.008
    67          C      4    TYR     CZ     67     0.3226      12.01
    68         OH      4    TYR     OH     68    -0.5579         16
    69         HO      4    TYR     HH     69     0.3992      1.008
    70         CA      4    TYR    CE2     70    -0.2341      12.01
    71         HA      4    TYR    HE2     71     0.1656      1.008
    72         CA      4    TYR    CD2     72    -0.1906      12.01
    73         HA      4    TYR    HD2     73     0.1699      1.008
    74          C      4    TYR      C     74     0.5973      12.01
    75          O      4    TYR      O     75    -0.5679         16   ; qtot 1
; residue   5 ILE rtp ILE  q  0.0
    76          N      5    ILE      N     76    -0.4157      14.01
    77          H      5    ILE      H     77     0.2719      1.008
    78         CT      5    ILE     CA     78    -0.0597      12.01
    79         H1      5    ILE     HA     79     0.0869      1.008
    80         CT      5    ILE     CB     80     0.1303      12.01
    81         HC      5    ILE     HB     81     0.0187      1.008
    82         CT      5    ILE    CG2     82    -0.3204      12.01
    83         HC      5    ILE   HG21     83     0.0882      1.008
    84         HC      5    ILE   HG22     84     0.0882      1.008
    85         HC      5    ILE   HG23     85     0.0882      1.008
    86         CT      5    ILE    CG1     86     -0.043      12.01
    87         HC      5    ILE   HG11     87     0.0236      1.008
    88         HC      5    ILE   HG12     88     0.0236      1.008
    89         CT      5    ILE     CD     89     -0.066      12.01
    90         HC      5    ILE    HD1     90     0.0186      1.008
    91         HC      5    ILE    HD2     91     0.0186      1.008
    92         HC      5    ILE    HD3     92     0.0186      1.008
    93          C      5    ILE      C     93     0.5973      12.01
    94          O      5    ILE      O     94    -0.5679         16   ; qtot 1
; residue   6 HIS rtp HIE  q  0.0
    95          N      6    HIS      N     95    -0.4157      14.01
    96          H      6    HIS      H     96     0.2719      1.008
    97         CT      6    HIS     CA     97    -0.0581      12.01
    98         H1      6    HIS     HA     98      0.136      1.008
    99         CT      6    HIS     CB     99    -0.0074      12.01
   100         HC      6    HIS    HB1    100     0.0367      1.008
   101         HC      6    HIS    HB2    101     0.0367      1.008
   102         CC      6    HIS     CG    102     0.1868      12.01
   103         NB      6    HIS    ND1    103    -0.5432      14.01
   104         CR      6    HIS    CE1    104     0.1635      12.01
   105         H5      6    HIS    HE1    105     0.1435      1.008
   106         NA      6    HIS    NE2    106    -0.2795      14.01
   107          H      6    HIS    HE2    107     0.3339      1.008
   108         CW      6    HIS    CD2    108    -0.2207      12.01
   109         H4      6    HIS    HD2    109     0.1862      1.008
   110          C      6    HIS      C    110     0.5973      12.01
   111          O      6    HIS      O    111    -0.5679         16   ; qtot 1
; residue   7 PRO rtp PRO  q  0.0
   112          N      7    PRO      N    112    -0.2548      14.01
   113         CT      7    PRO     CD    113     0.0192      12.01
   114         H1      7    PRO    HD1    114     0.0391      1.008
   115         H1      7    PRO    HD2    115     0.0391      1.008
   116         CT      7    PRO     CG    116     0.0189      12.01
   117         HC      7    PRO    HG1    117     0.0213      1.008
   118         HC      7    PRO    HG2    118     0.0213      1.008
   119         CT      7    PRO     CB    119     -0.007      12.01
   120         HC      7    PRO    HB1    120     0.0253      1.008
   121         HC      7    PRO    HB2    121     0.0253      1.008
   122         CT      7    PRO     CA    122    -0.0266      12.01
   123         H1      7    PRO     HA    123     0.0641      1.008
   124          C      7    PRO      C    124     0.5896      12.01
   125          O      7    PRO      O    125    -0.5748         16   ; qtot 1
; residue   8 PHE rtp PHE  q  0.0
   126          N      8    PHE      N    126    -0.4157      14.01
   127          H      8    PHE      H    127     0.2719      1.008
   128         CT      8    PHE     CA    128    -0.0024      12.01
   129         H1      8    PHE     HA    129     0.0978      1.008
   130         CT      8    PHE     CB    130    -0.0343      12.01
   131         HC      8    PHE    HB1    131     0.0295      1.008
   132         HC      8    PHE    HB2    132     0.0295      1.008
   133         CA      8    PHE     CG    133     0.0118      12.01
   134         CA      8    PHE    CD1    134    -0.1256      12.01
   135         HA      8    PHE    HD1    135      0.133      1.008
   136         CA      8    PHE    CE1    136    -0.1704      12.01
   137         HA      8    PHE    HE1    137      0.143      1.008
   138         CA      8    PHE     CZ    138    -0.1072      12.01
   139         HA      8    PHE     HZ    139     0.1297      1.008
   140         CA      8    PHE    CE2    140    -0.1704      12.01
   141         HA      8    PHE    HE2    141      0.143      1.008
   142         CA      8    PHE    CD2    142    -0.1256      12.01
   143         HA      8    PHE    HD2    143      0.133      1.008
   144          C      8    PHE      C    144     0.5973      12.01
   145          O      8    PHE      O    145    -0.5679         16   ; qtot 1
; residue   9 HIS rtp HIE  q  0.0
   146          N      9    HIS      N    146    -0.4157      14.01
   147          H      9    HIS      H    147     0.2719      1.008
   148         CT      9    HIS     CA    148    -0.0581      12.01
   149         H1      9    HIS     HA    149      0.136      1.008
   150         CT      9    HIS     CB    150    -0.0074      12.01
   151         HC      9    HIS    HB1    151     0.0367      1.008
   152         HC      9    HIS    HB2    152     0.0367      1.008
   153         CC      9    HIS     CG    153     0.1868      12.01
   154         NB      9    HIS    ND1    154    -0.5432      14.01
   155         CR      9    HIS    CE1    155     0.1635      12.01
   156         H5      9    HIS    HE1    156     0.1435      1.008
   157         NA      9    HIS    NE2    157    -0.2795      14.01
   158          H      9    HIS    HE2    158     0.3339      1.008
   159         CW      9    HIS    CD2    159    -0.2207      12.01
   160         H4      9    HIS    HD2    160     0.1862      1.008
   161          C      9    HIS      C    161     0.5973      12.01
   162          O      9    HIS      O    162    -0.5679         16   ; qtot 1
; residue  10 LEU rtp CLEU q -1.0
   163          N     10    LEU      N    163    -0.3821      14.01
   164          H     10    LEU      H    164     0.2681      1.008
   165         CT     10    LEU     CA    165    -0.2847      12.01
   166         H1     10    LEU     HA    166     0.1346      1.008
   167         CT     10    LEU     CB    167    -0.2469      12.01
   168         HC     10    LEU    HB1    168     0.0974      1.008
   169         HC     10    LEU    HB2    169     0.0974      1.008
   170         CT     10    LEU     CG    170     0.3706      12.01
   171         HC     10    LEU     HG    171    -0.0374      1.008
   172         CT     10    LEU    CD1    172    -0.4163      12.01
   173         HC     10    LEU   HD11    173     0.1038      1.008
   174         HC     10    LEU   HD12    174     0.1038      1.008
   175         HC     10    LEU   HD13    175     0.1038      1.008
   176         CT     10    LEU    CD2    176    -0.4163      12.01
   177         HC     10    LEU   HD21    177     0.1038      1.008
   178         HC     10    LEU   HD22    178     0.1038      1.008
   179         HC     10    LEU   HD23    179     0.1038      1.008
   180          C     10    LEU      C    180     0.8326      12.01
   181         O2     10    LEU    OC1    181    -0.8199         16
   182         O2     10    LEU    OC2    182    -0.8199         16   ; qtot 0

[ bonds ]
;  ai    aj funct            c0            c1            c2            c3
    1     2     1 
    1     3     1 
    1     4     1 
    1     5     1 
    5     6     1 
    5     7     1 
    5    13     1 
    7     8     1 
    7     9     1 
    7    10     1 
   10    11     1 
   10    12     1 
   13    14     1 
   13    15     1 
   15    16     1 
   15    17     1 
   17    18     1 
   17    19     1 
   17    37     1 
   19    20     1 
   19    21     1 
   19    22     1 
   22    23     1 
   22    24     1 
   22    25     1 
   25    26     1 
   25    27     1 
   25    28     1 
   28    29     1 
   28    30     1 
   30    31     1 
   30    34     1 
   31    32     1 
   31    33     1 
   34    35     1 
   34    36     1 
   37    38     1 
   37    39     1 
   39    40     1 
   39    41     1 
   41    42     1 
   41    43     1 
   41    53     1 
   43    44     1 
   43    45     1 
   43    49     1 
   45    46     1 
   45    47     1 
   45    48     1 
   49    50     1 
   49    51     1 
   49    52     1 
   53    54     1 
   53    55     1 
   55    56     1 
   55    57     1 
   57    58     1 
   57    59     1 
   57    74     1 
   59    60     1 
   59    61     1 
   59    62     1 
   62    63     1 
   62    72     1 
   63    64     1 
   63    65     1 
   65    66     1 
   65    67     1 
   67    68     1 
   67    70     1 
   68    69     1 
   70    71     1 
   70    72     1 
   72    73     1 
   74    75     1 
   74    76     1 
   76    77     1 
   76    78     1 
   78    79     1 
   78    80     1 
   78    93     1 
   80    81     1 
   80    82     1 
   80    86     1 
   82    83     1 
   82    84     1 
   82    85     1 
   86    87     1 
   86    88     1 
   86    89     1 
   89    90     1 
   89    91     1 
   89    92     1 
   93    94     1 
   93    95     1 
   95    96     1 
   95    97     1 
   97    98     1 
   97    99     1 
   97   110     1 
   99   100     1 
   99   101     1 
   99   102     1 
  102   103     1 
  102   108     1 
  103   104     1 
  104   105     1 
  104   106     1 
  106   107     1 
  106   108     1 
  108   109     1 
  110   111     1 
  110   112     1 
  112   113     1 
  112   122     1 
  113   114     1 
  113   115     1 
  113   116     1 
  116   117     1 
  116   118     1 
  116   119     1 
  119   120     1 
  119   121     1 
  119   122     1 
  122   123     1 
  122   124     1 
  124   125     1 
  124   126     1 
  126   127     1 
  126   128     1 
  128   129     1 
  128   130     1 
  128   144     1 
  130   131     1 
  130   132     1 
  130   133     1 
  133   134     1 
  133   142     1 
  134   135     1 
  134   136     1 
  136   137     1 
  136   138     1 
  138   139     1 
  138   140     1 
  140   141     1 
  140   142     1 
  142   143     1 
  144   145     1 
  144   146     1 
  146   147     1 
  146   148     1 
  148   149     1 
  148   150     1 
  148   161     1 
  150   151     1 
  150   152     1 
  150   153     1 
  153   154     1 
  153   159     1 
  154   155     1 
  155   156     1 
  155   157     1 
  157   158     1 
  157   159     1 
  159   160     1 
  161   162     1 
  161   163     1 
  163   164     1 
  163   165     1 
  165   166     1 
  165   167     1 
  165   180     1 
  167   168     1 
  167   169     1 
  167   170     1 
  170   171     1 
  170   172     1 
  170   176     1 
  172   173     1 
  172   174     1 
  172   175     1 
  176   177     1 
  176   178     1 
  176   179     1 
  180   181     1 
  180   182     1 

[ pairs ]
;  ai    aj funct            c0            c1            c2            c3
    1     8     1 
    1     9     1 
    1    10     1 
    1    14     1 
    1    15     1 
    2     6     1 
    2     7     1 
    2    13     1 
    3     6     1 
    3     7     1 
    3    13     1 
    4     6     1 
    4     7     1 
    4    13     1 
    5    11     1 
    5    12     1 
    5    16     1 
    5    17     1 
    6     8     1 
    6     9     1 
    6    10     1 
    6    14     1 
    6    15     1 
    7    14     1 
    7    15     1 
    8    11     1 
    8    12     1 
    8    13     1 
    9    11     1 
    9    12     1 
    9    13     1 
   10    13     1 
   13    18     1 
   13    19     1 
   13    37     1 
   14    16     1 
   14    17     1 
   15    20     1 
   15    21     1 
   15    22     1 
   15    38     1 
   15    39     1 
   16    18     1 
   16    19     1 
   16    37     1 
   17    23     1 
   17    24     1 
   17    25     1 
   17    40     1 
   17    41     1 
   18    20     1 
   18    21     1 
   18    22     1 
   18    38     1 
   18    39     1 
   19    26     1 
   19    27     1 
   19    28     1 
   19    38     1 
   19    39     1 
   20    23     1 
   20    24     1 
   20    25     1 
   20    37     1 
   21    23     1 
   21    24     1 
   21    25     1 
   21    37     1 
   22    29     1 
   22    30     1 
   22    37     1 
   23    26     1 
   23    27     1 
   23    28     1 
   24    26     1 
   24    27     1 
   24    28     1 
   25    31     1 
   25    34     1 
   26    29     1 
   26    30     1 
   27    29     1 
   27    30     1 
   28    32     1 
   28    33     1 
   28    35     1 
   28    36     1 
   29    31     1 
   29    34     1 
   31    35     1 
   31    36     1 
   32    34     1 
   33    34     1 
   37    42     1 
   37    43     1 
   37    53     1 
   38    40     1 
   38    41     1 
   39    44     1 
   39    45     1 
   39    49     1 
   39    54     1 
   39    55     1 
   40    42     1 
   40    43     1 
   40    53     1 
   41    46     1 
   41    47     1 
   41    48     1 
   41    50     1 
   41    51     1 
   41    52     1 
   41    56     1 
   41    57     1 
   42    44     1 
   42    45     1 
   42    49     1 
   42    54     1 
   42    55     1 
   43    54     1 
   43    55     1 
   44    46     1 
   44    47     1 
   44    48     1 
   44    50     1 
   44    51     1 
   44    52     1 
   44    53     1 
   45    50     1 
   45    51     1 
   45    52     1 
   45    53     1 
   46    49     1 
   47    49     1 
   48    49     1 
   49    53     1 
   53    58     1 
   53    59     1 
   53    74     1 
   54    56     1 
   54    57     1 
   55    60     1 
   55    61     1 
   55    62     1 
   55    75     1 
   55    76     1 
   56    58     1 
   56    59     1 
   56    74     1 
   57    63     1 
   57    72     1 
   57    77     1 
   57    78     1 
   58    60     1 
   58    61     1 
   58    62     1 
   58    75     1 
   58    76     1 
   59    64     1 
   59    65     1 
   59    70     1 
   59    73     1 
   59    75     1 
   59    76     1 
   60    63     1 
   60    72     1 
   60    74     1 
   61    63     1 
   61    72     1 
   61    74     1 
   62    66     1 
   62    67     1 
   62    71     1 
   62    74     1 
   63    68     1 
   63    70     1 
   63    73     1 
   64    66     1 
   64    67     1 
   64    72     1 
   65    69     1 
   65    71     1 
   65    72     1 
   66    68     1 
   66    70     1 
   67    73     1 
   68    71     1 
   68    72     1 
   69    70     1 
   71    73     1 
   74    79     1 
   74    80     1 
   74    93     1 
   75    77     1 
   75    78     1 
   76    81     1 
   76    82     1 
   76    86     1 
   76    94     1 
   76    95     1 
   77    79     1 
   77    80     1 
   77    93     1 
   78    83     1 
   78    84     1 
   78    85     1 
   78    87     1 
   78    88     1 
   78    89     1 
   78    96     1 
   78    97     1 
   79    81     1 
   79    82     1 
   79    86     1 
   79    94     1 
   79    95     1 
   80    90     1 
   80    91     1 
   80    92     1 
   80    94     1 
   80    95     1 
   81    83     1 
   81    84     1 
   81    85     1 
   81    87     1 
   81    88     1 
   81    89     1 
   81    93     1 
   82    87     1 
   82    88     1 
   82    89     1 
   82    93     1 
   83    86     1 
   84    86     1 
   85    86     1 
   86    93     1 
   87    90     1 
   87    91     1 
   87    92     1 
   88    90     1 
   88    91     1 
   88    92     1 
   93    98     1 
   93    99     1 
   93   110     1 
   94    96     1 
   94    97     1 
   95   100     1 
   95   101     1 
   95   102     1 
   95   111     1 
   95   112     1 
   96    98     1 
   96    99     1 
   96   110     1 
   97   103     1 
   97   108     1 
   97   113     1 
   97   122     1 
   98   100     1 
   98   101     1 
   98   102     1 
   98   111     1 
   98   112     1 
   99   104     1 
   99   106     1 
   99   109     1 
   99   111     1 
   99   112     1 
  100   103     1 
  100   108     1 
  100   110     1 
  101   103     1 
  101   108     1 
  101   110     1 
  102   105     1 
  102   107     1 
  102   110     1 
  103   107     1 
  103   109     1 
  104   109     1 
  105   107     1 
  105   108     1 
  107   109     1 
  110   114     1 
  110   115     1 
  110   116     1 
  110   119     1 
  110   123     1 
  110   124     1 
  111   113     1 
  111   122     1 
  112   117     1 
  112   118     1 
  112   120     1 
  112   121     1 
  112   125     1 
  112   126     1 
  113   120     1 
  113   121     1 
  113   123     1 
  113   124     1 
  114   117     1 
  114   118     1 
  114   119     1 
  114   122     1 
  115   117     1 
  115   118     1 
  115   119     1 
  115   122     1 
  116   123     1 
  116   124     1 
  117   120     1 
  117   121     1 
  117   122     1 
  118   120     1 
  118   121     1 
  118   122     1 
  119   125     1 
  119   126     1 
  120   123     1 
  120   124     1 
  121   123     1 
  121   124     1 
  122   127     1 
  122   128     1 
  123   125     1 
  123   126     1 
  124   129     1 
  124   130     1 
  124   144     1 
  125   127     1 
  125   128     1 
  126   131     1 
  126   132     1 
  126   133     1 
  126   145     1 
  126   146     1 
  127   129     1 
  127   130     1 
  127   144     1 
  128   134     1 
  128   142     1 
  128   147     1 
  128   148     1 
  129   131     1 
  129   132     1 
  129   133     1 
  129   145     1 
  129   146     1 
  130   135     1 
  130   136     1 
  130   140     1 
  130   143     1 
  130   145     1 
  130   146     1 
  131   134     1 
  131   142     1 
  131   144     1 
  132   134     1 
  132   142     1 
  132   144     1 
  133   137     1 
  133   138     1 
  133   141     1 
  133   144     1 
  134   139     1 
  134   140     1 
  134   143     1 
  135   137     1 
  135   138     1 
  135   142     1 
  136   141     1 
  136   142     1 
  137   139     1 
  137   140     1 
  138   143     1 
  139   141     1 
  139   142     1 
  141   143     1 
  144   149     1 
  144   150     1 
  144   161     1 
  145   147     1 
  145   148     1 
  146   151     1 
  146   152     1 
  146   153     1 
  146   162     1 
  146   163     1 
  147   149     1 
  147   150     1 
  147   161     1 
  148   154     1 
  148   159     1 
  148   164     1 
  148   165     1 
  149   151     1 
  149   152     1 
  149   153     1 
  149   162     1 
  149   163     1 
  150   155     1 
  150   157     1 
  150   160     1 
  150   162     1 
  150   163     1 
  151   154     1 
  151   159     1 
  151   161     1 
  152   154     1 
  152   159     1 
  152   161     1 
  153   156     1 
  153   158     1 
  153   161     1 
  154   158     1 
  154   160     1 
  155   160     1 
  156   158     1 
  156   159     1 
  158   160     1 
  161   166     1 
  161   167     1 
  161   180     1 
  162   164     1 
  162   165     1 
  163   168     1 
  163   169     1 
  163   170     1 
  163   181     1 
  163   182     1 
  164   166     1 
  164   167     1 
  164   180     1 
  165   171     1 
  165   172     1 
  165   176     1 
  166   168     1 
  166   169     1 
  166   170     1 
  166   181     1 
  166   182     1 
  167   173     1 
  167   174     1 
  167   175     1 
  167   177     1 
  167   178     1 
  167   179     1 
  167   181     1 
  167   182     1 
  168   171     1 
  168   172     1 
  168   176     1 
  168   180     1 
  169   171     1 
  169   172     1 
  169   176     1 
  169   180     1 
  170   180     1 
  171   173     1 
  171   174     1 
  171   175     1 
  171   177     1 
  171   178     1 
  171   179     1 
  172   177     1 
  172   178     1 
  172   179     1 
  173   176     1 
  174   176     1 
  175   176     1 

[ angles ]
;  ai    aj    ak funct            c0            c1            c2            c3
    2     1     3     1 
    2     1     4     1 
    2     1     5     1 
    3     1     4     1 
    3     1     5     1 
    4     1     5     1 
    1     5     6     1 
    1     5     7     1 
    1     5    13     1 
    6     5     7     1 
    6     5    13     1 
    7     5    13     1 
    5     7     8     1 
    5     7     9     1 
    5     7    10     1 
    8     7     9     1 
    8     7    10     1 
    9     7    10     1 
    7    10    11     1 
    7    10    12     1 
   11    10    12     1 
    5    13    14     1 
    5    13    15     1 
   14    13    15     1 
   13    15    16     1 
   13    15    17     1 
   16    15    17     1 
   15    17    18     1 
   15    17    19     1 
   15    17    37     1 
   18    17    19     1 
   18    17    37     1 
   19    17    37     1 
   17    19    20     1 
   17    19    21     1 
   17    19    22     1 
   20    19    21     1 
   20    19    22     1 
   21    19    22     1 
   19    22    23     1 
   19    22    24     1 
   19    22    25     1 
   23    22    24     1 
   23    22    25     1 
   24    22    25     1 
   22    25    26     1 
   22    25    27     1 
   22    25    28     1 
   26    25    27     1 
   26    25    28     1 
   27    25    28     1 
   25    28    29     1 
   25    28    30     1 
   29    28    30     1 
   28    30    31     1 
   28    30    34     1 
   31    30    34     1 
   30    31    32     1 
   30    31    33     1 
   32    31    33     1 
   30    34    35     1 
   30    34    36     1 
   35    34    36     1 
   17    37    38     1 
   17    37    39     1 
   38    37    39     1 
   37    39    40     1 
   37    39    41     1 
   40    39    41     1 
   39    41    42     1 
   39    41    43     1 
   39    41    53     1 
   42    41    43     1 
   42    41    53     1 
   43    41    53     1 
   41    43    44     1 
   41    43    45     1 
   41    43    49     1 
   44    43    45     1 
   44    43    49     1 
   45    43    49     1 
   43    45    46     1 
   43    45    47     1 
   43    45    48     1 
   46    45    47     1 
   46    45    48     1 
   47    45    48     1 
   43    49    50     1 
   43    49    51     1 
   43    49    52     1 
   50    49    51     1 
   50    49    52     1 
   51    49    52     1 
   41    53    54     1 
   41    53    55     1 
   54    53    55     1 
   53    55    56     1 
   53    55    57     1 
   56    55    57     1 
   55    57    58     1 
   55    57    59     1 
   55    57    74     1 
   58    57    59     1 
   58    57    74     1 
   59    57    74     1 
   57    59    60     1 
   57    59    61     1 
   57    59    62     1 
   60    59    61     1 
   60    59    62     1 
   61    59    62     1 
   59    62    63     1 
   59    62    72     1 
   63    62    72     1 
   62    63    64     1 
   62    63    65     1 
   64    63    65     1 
   63    65    66     1 
   63    65    67     1 
   66    65    67     1 
   65    67    68     1 
   65    67    70     1 
   68    67    70     1 
   67    68    69     1 
   67    70    71     1 
   67    70    72     1 
   71    70    72     1 
   62    72    70     1 
   62    72    73     1 
   70    72    73     1 
   57    74    75     1 
   57    74    76     1 
   75    74    76     1 
   74    76    77     1 
   74    76    78     1 
   77    76    78     1 
   76    78    79     1 
   76    78    80     1 
   76    78    93     1 
   79    78    80     1 
   79    78    93     1 
   80    78    93     1 
   78    80    81     1 
   78    80    82     1 
   78    80    86     1 
   81    80    82     1 
   81    80    86     1 
   82    80    86     1 
   80    82    83     1 
   80    82    84     1 
   80    82    85     1 
   83    82    84     1 
   83    82    85     1 
   84    82    85     1 
   80    86    87     1 
   80    86    88     1 
   80    86    89     1 
   87    86    88     1 
   87    86    89     1 
   88    86    89     1 
   86    89    90     1 
   86    89    91     1 
   86    89    92     1 
   90    89    91     1 
   90    89    92     1 
   91    89    92     1 
   78    93    94     1 
   78    93    95     1 
   94    93    95     1 
   93    95    96     1 
   93    95    97     1 
   96    95    97     1 
   95    97    98     1 
   95    97    99     1 
   95    97   110     1 
   98    97    99     1 
   98    97   110     1 
   99    97   110     1 
   97    99   100     1 
   97    99   101     1 
   97    99   102     1 
  100    99   101     1 
  100    99   102     1 
  101    99   102     1 
   99   102   103     1 
   99   102   108     1 
  103   102   108     1 
  102   103   104     1 
  103   104   105     1 
  103   104   106     1 
  105   104   106     1 
  104   106   107     1 
  104   106   108     1 
  107   106   108     1 
  102   108   106     1 
  102   108   109     1 
  106   108   109     1 
   97   110   111     1 
   97   110   112     1 
  111   110   112     1 
  110   112   113     1 
  110   112   122     1 
  113   112   122     1 
  112   113   114     1 
  112   113   115     1 
  112   113   116     1 
  114   113   115     1 
  114   113   116     1 
  115   113   116     1 
  113   116   117     1 
  113   116   118     1 
  113   116   119     1 
  117   116   118     1 
  117   116   119     1 
  118   116   119     1 
  116   119   120     1 
  116   119   121     1 
  116   119   122     1 
  120   119   121     1 
  120   119   122     1 
  121   119   122     1 
  112   122   119     1 
  112   122   123     1 
  112   122   124     1 
  119   122   123     1 
  119   122   124     1 
  123   122   124     1 
  122   124   125     1 
  122   124   126     1 
  125   124   126     1 
  124   126   127     1 
  124   126   128     1 
  127   126   128     1 
  126   128   129     1 
  126   128   130     1 
  126   128   144     1 
  129   128   130     1 
  129   128   144     1 
  130   128   144     1 
  128   130   131     1 
  128   130   132     1 
  128   130   133     1 
  131   130   132     1 
  131   130   133     1 
  132   130   133     1 
  130   133   134     1 
  130   133   142     1 
  134   133   142     1 
  133   134   135     1 
  133   134   136     1 
  135   134   136     1 
  134   136   137     1 
  134   136   138     1 
  137   136   138     1 
  136   138   139     1 
  136   138   140     1 
  139   138   140     1 
  138   140   141     1 
  138   140   142     1 
  141   140   142     1 
  133   142   140     1 
  133   142   143     1 
  140   142   143     1 
  128   144   145     1 
  128   144   146     1 
  145   144   146     1 
  144   146   147     1 
  144   146   148     1 
  147   146   148     1 
  146   148   149     1 
  146   148   150     1 
  146   148   161     1 
  149   148   150     1 
  149   148   161     1 
  150   148   161     1 
  148   150   151     1 
  148   150   152     1 
  148   150   153     1 
  151   150   152     1 
  151   150   153     1 
  152   150   153     1 
  150   153   154     1 
  150   153   159     1 
  154   153   159     1 
  153   154   155     1 
  154   155   156     1 
  154   155   157     1 
  156   155   157     1 
  155   157   158     1 
  155   157   159     1 
  158   157   159     1 
  153   159   157     1 
  153   159   160     1 
  157   159   160     1 
  148   161   162     1 
  148   161   163     1 
  162   161   163     1 
  161   163   164     1 
  161   163   165     1 
  164   163   165     1 
  163   165   166     1 
  163   165   167     1 
  163   165   180     1 
  166   165   167     1 
  166   165   180     1 
  167   165   180     1 
  165   167   168     1 
  165   167   169     1 
  165   167   170     1 
  168   167   169     1 
  168   167   170     1 
  169   167   170     1 
  167   170   171     1 
  167   170   172     1 
  167   170   176     1 
  171   170   172     1 
  171   170   176     1 
  172   170   176     1 
  170   172   173     1 
  170   172   174     1 
  170   172   175     1 
  173   172   174     1 
  173   172   175     1 
  174   172   175     1 
  170   176   177     1 
  170   176   178     1 
  170   176   179     1 
  177   176   178     1 
  177   176   179     1 
  178   176   179     1 
  165   180   181     1 
  165   180   182     1 
  181   180   182     1 

[ dihedrals ]
;  ai    aj    ak    al funct            c0            c1            c2            c3            c4            c5
    2     1     5     6     9 
    2     1     5     7     9 
    2     1     5    13     9 
    3     1     5     6     9 
    3     1     5     7     9 
    3     1     5    13     9 
    4     1     5     6     9 
    4     1     5     7     9 
    4     1     5    13     9 
    1     5     7    10     9    torsion_ASP_N_CA_CB_CG_mult1
    1     5     7    10     9    torsion_ASP_N_CA_CB_CG_mult2
    1     5     7    10     9    torsion_ASP_N_CA_CB_CG_mult3
    1     5     7    10     9    torsion_ASP_N_CA_CB_CG_mult4
    1     5     7    10     9    torsion_ASP_N_CA_CB_CG_mult5
    1     5     7    10     9    torsion_ASP_N_CA_CB_CG_mult6
    1     5     7     8     9 
    1     5     7     9     9 
    6     5     7     8     9 
    6     5     7     9     9 
    6     5     7    10     9 
   13     5     7     8     9 
   13     5     7     9     9 
   13     5     7    10     9 
    1     5    13    14     9 
    1     5    13    15     9 
    6     5    13    14     9 
    6     5    13    15     9 
    7     5    13    14     9 
    7     5    13    15     9 
    5     7    10    11     9    torsion_ASP_CA_CB_CG_OD_mult1
    5     7    10    11     9    torsion_ASP_CA_CB_CG_OD_mult2
    5     7    10    11     9    torsion_ASP_CA_CB_CG_OD_mult3
    5     7    10    11     9    torsion_ASP_CA_CB_CG_OD_mult4
    5     7    10    11     9    torsion_ASP_CA_CB_CG_OD_mult5
    5     7    10    11     9    torsion_ASP_CA_CB_CG_OD_mult6
    5     7    10    12     9    torsion_ASP_CA_CB_CG_OD_mult1
    5     7    10    12     9    torsion_ASP_CA_CB_CG_OD_mult2
    5     7    10    12     9    torsion_ASP_CA_CB_CG_OD_mult3
    5     7    10    12     9    torsion_ASP_CA_CB_CG_OD_mult4
    5     7    10    12     9    torsion_ASP_CA_CB_CG_OD_mult5
    5     7    10    12     9    torsion_ASP_CA_CB_CG_OD_mult6
    8     7    10    11     9 
    8     7    10    12     9 
    9     7    10    11     9 
    9     7    10    12     9 
    5    13    15    16     9 
    5    13    15    17     9 
   14    13    15    16     9 
   14    13    15    17     9 
   13    15    17    18     9 
   13    15    17    19     9 
   13    15    17    37     9 
   16    15    17    18     9 
   16    15    17    19     9 
   16    15    17    37     9 
   15    17    19    20     9 
   15    17    19    21     9 
   15    17    19    22     9 
   18    17    19    20     9 
   18    17    19    21     9 
   18    17    19    22     9 
   37    17    19    20     9 
   37    17    19    21     9 
   37    17    19    22     9 
   15    17    37    38     9 
   15    17    37    39     9 
   18    17    37    38     9 
   18    17    37    39     9 
   19    17    37    38     9 
   19    17    37    39     9 
   17    19    22    23     9 
   17    19    22    24     9 
   17    19    22    25     9 
   20    19    22    23     9 
   20    19    22    24     9 
   20    19    22    25     9 
   21    19    22    23     9 
   21    19    22    24     9 
   21    19    22    25     9 
   19    22    25    26     9 
   19    22    25    27     9 
   19    22    25    28     9 
   23    22    25    26     9 
   23    22    25    27     9 
   23    22    25    28     9 
   24    22    25    26     9 
   24    22    25    27     9 
   24    22    25    28     9 
   22    25    28    29     9 
   22    25    28    30     9 
   26    25    28    29     9 
   26    25    28    30     9 
   27    25    28    29     9 
   27    25    28    30     9 
   25    28    30    31     9 
   25    28    30    34     9 
   29    28    30    31     9 
   29    28    30    34     9 
   28    30    31    32     9 
   28    30    31    33     9 
   34    30    31    32     9 
   34    30    31    33     9 
   28    30    34    35     9 
   28    30    34    36     9 
   31    30    34    35     9 
   31    30    34    36     9 
   17    37    39    40     9 
   17    37    39    41     9 
   38    37    39    40     9 
   38    37    39    41     9 
   37    39    41    42     9 
   37    39    41    43     9 
   37    39    41    53     9 
   40    39    41    42     9 
   40    39    41    43     9 
   40    39    41    53     9 
   39    41    43    44     9 
   39    41    43    45     9 
   39    41    43    49     9 
   42    41    43    44     9 
   42    41    43    45     9 
   42    41    43    49     9 
   53    41    43    44     9 
   53    41    43    45     9 
   53    41    43    49     9 
   39    41    53    54     9 
   39    41    53    55     9 
   42    41    53    54     9 
   42    41    53    55     9 
   43    41    53    54     9 
   43    41    53    55     9 
   41    43    45    46     9 
   41    43    45    47     9 
   41    43    45    48     9 
   44    43    45    46     9 
   44    43    45    47     9 
   44    43    45    48     9 
   49    43    45    46     9 
   49    43    45    47     9 
   49    43    45    48     9 
   41    43    49    50     9 
   41    43    49    51     9 
   41    43    49    52     9 
   44    43    49    50     9 
   44    43    49    51     9 
   44    43    49    52     9 
   45    43    49    50     9 
   45    43    49    51     9 
   45    43    49    52     9 
   41    53    55    56     9 
   41    53    55    57     9 
   54    53    55    56     9 
   54    53    55    57     9 
   53    55    57    58     9 
   53    55    57    59     9 
   53    55    57    74     9 
   56    55    57    58     9 
   56    55    57    59     9 
   56    55    57    74     9 
   55    57    59    60     9 
   55    57    59    61     9 
   55    57    59    62     9 
   58    57    59    60     9 
   58    57    59    61     9 
   58    57    59    62     9 
   74    57    59    60     9 
   74    57    59    61     9 
   74    57    59    62     9 
   55    57    74    75     9 
   55    57    74    76     9 
   58    57    74    75     9 
   58    57    74    76     9 
   59    57    74    75     9 
   59    57    74    76     9 
   57    59    62    63     9 
   57    59    62    72     9 
   60    59    62    63     9 
   60    59    62    72     9 
   61    59    62    63     9 
   61    59    62    72     9 
   59    62    63    64     9 
   59    62    63    65     9 
   72    62    63    64     9 
   72    62    63    65     9 
   59    62    72    70     9 
   59    62    72    73     9 
   63    62    72    70     9 
   63    62    72    73     9 
   62    63    65    66     9 
   62    63    65    67     9 
   64    63    65    66     9 
   64    63    65    67     9 
   63    65    67    68     9 
   63    65    67    70     9 
   66    65    67    68     9 
   66    65    67    70     9 
   65    67    68    69     9 
   70    67    68    69     9 
   65    67    70    71     9 
   65    67    70    72     9 
   68    67    70    71     9 
   68    67    70    72     9 
   67    70    72    62     9 
   67    70    72    73     9 
   71    70    72    62     9 
   71    70    72    73     9 
   57    74    76    77     9 
   57    74    76    78     9 
   75    74    76    77     9 
   75    74    76    78     9 
   74    76    78    79     9 
   74    76    78    80     9 
   74    76    78    93     9 
   77    76    78    79     9 
   77    76    78    80     9 
   77    76    78    93     9 
   76    78    80    82     9    torsion_ILE_N_CA_CB_CG2_mult1
   76    78    80    82     9    torsion_ILE_N_CA_CB_CG2_mult2
   76    78    80    81     9 
   76    78    80    86     9 
   79    78    80    81     9 
   79    78    80    82     9 
   79    78    80    86     9 
   93    78    80    81     9 
   93    78    80    82     9 
   93    78    80    86     9 
   76    78    93    94     9 
   76    78    93    95     9 
   79    78    93    94     9 
   79    78    93    95     9 
   80    78    93    94     9 
   80    78    93    95     9 
   78    80    82    83     9 
   78    80    82    84     9 
   78    80    82    85     9 
   81    80    82    83     9 
   81    80    82    84     9 
   81    80    82    85     9 
   86    80    82    83     9 
   86    80    82    84     9 
   86    80    82    85     9 
   78    80    86    87     9 
   78    80    86    88     9 
   78    80    86    89     9 
   81    80    86    87     9 
   81    80    86    88     9 
   81    80    86    89     9 
   82    80    86    87     9 
   82    80    86    88     9 
   82    80    86    89     9 
   80    86    89    90     9 
   80    86    89    91     9 
   80    86    89    92     9 
   87    86    89    90     9 
   87    86    89    91     9 
   87    86    89    92     9 
   88    86    89    90     9 
   88    86    89    91     9 
   88    86    89    92     9 
   78    93    95    96     9 
   78    93    95    97     9 
   94    93    95    96     9 
   94    93    95    97     9 
   93    95    97    98     9 
   93    95    97    99     9 
   93    95    97   110     9 
   96    95    97    98     9 
   96    95    97    99     9 
   96    95    97   110     9 
   95    97    99   100     9 
   95    97    99   101     9 
   95    97    99   102     9 
   98    97    99   100     9 
   98    97    99   101     9 
   98    97    99   102     9 
  110    97    99   100     9 
  110    97    99   101     9 
  110    97    99   102     9 
   95    97   110   111     9 
   95    97   110   112     9 
   98    97   110   111     9 
   98    97   110   112     9 
   99    97   110   111     9 
   99    97   110   112     9 
   97    99   102   103     9 
   97    99   102   108     9 
  100    99   102   103     9 
  100    99   102   108     9 
  101    99   102   103     9 
  101    99   102   108     9 
   99   102   103   104     9 
  108   102   103   104     9 
   99   102   108   106     9 
   99   102   108   109     9 
  103   102   108   106     9 
  103   102   108   109     9 
  102   103   104   105     9 
  102   103   104   106     9 
  103   104   106   107     9 
  103   104   106   108     9 
  105   104   106   107     9 
  105   104   106   108     9 
  104   106   108   102     9 
  104   106   108   109     9 
  107   106   108   102     9 
  107   106   108   109     9 
   97   110   112   113     9 
   97   110   112   122     9 
  111   110   112   113     9 
  111   110   112   122     9 
  110   112   113   114     9 
  110   112   113   115     9 
  110   112   113   116     9 
  122   112   113   114     9 
  122   112   113   115     9 
  122   112   113   116     9 
  110   112   122   119     9 
  110   112   122   123     9 
  110   112   122   124     9 
  113   112   122   119     9 
  113   112   122   123     9 
  113   112   122   124     9 
  112   113   116   117     9 
  112   113   116   118     9 
  112   113   116   119     9 
  114   113   116   117     9 
  114   113   116   118     9 
  114   113   116   119     9 
  115   113   116   117     9 
  115   113   116   118     9 
  115   113   116   119     9 
  113   116   119   120     9 
  113   116   119   121     9 
  113   116   119   122     9 
  117   116   119   120     9 
  117   116   119   121     9 
  117   116   119   122     9 
  118   116   119   120     9 
  118   116   119   121     9 
  118   116   119   122     9 
  116   119   122   112     9 
  116   119   122   123     9 
  116   119   122   124     9 
  120   119   122   112     9 
  120   119   122   123     9 
  120   119   122   124     9 
  121   119   122   112     9 
  121   119   122   123     9 
  121   119   122   124     9 
  112   122   124   125     9 
  112   122   124   126     9 
  119   122   124   125     9 
  119   122   124   126     9 
  123   122   124   125     9 
  123   122   124   126     9 
  122   124   126   127     9 
  122   124   126   128     9 
  125   124   126   127     9 
  125   124   126   128     9 
  124   126   128   129     9 
  124   126   128   130     9 
  124   126   128   144     9 
  127   126   128   129     9 
  127   126   128   130     9 
  127   126   128   144     9 
  126   128   130   131     9 
  126   128   130   132     9 
  126   128   130   133     9 
  129   128   130   131     9 
  129   128   130   132     9 
  129   128   130   133     9 
  144   128   130   131     9 
  144   128   130   132     9 
  144   128   130   133     9 
  126   128   144   145     9 
  126   128   144   146     9 
  129   128   144   145     9 
  129   128   144   146     9 
  130   128   144   145     9 
  130   128   144   146     9 
  128   130   133   134     9 
  128   130   133   142     9 
  131   130   133   134     9 
  131   130   133   142     9 
  132   130   133   134     9 
  132   130   133   142     9 
  130   133   134   135     9 
  130   133   134   136     9 
  142   133   134   135     9 
  142   133   134   136     9 
  130   133   142   140     9 
  130   133   142   143     9 
  134   133   142   140     9 
  134   133   142   143     9 
  133   134   136   137     9 
  133   134   136   138     9 
  135   134   136   137     9 
  135   134   136   138     9 
  134   136   138   139     9 
  134   136   138   140     9 
  137   136   138   139     9 
  137   136   138   140     9 
  136   138   140   141     9 
  136   138   140   142     9 
  139   138   140   141     9 
  139   138   140   142     9 
  138   140   142   133     9 
  138   140   142   143     9 
  141   140   142   133     9 
  141   140   142   143     9 
  128   144   146   147     9 
  128   144   146   148     9 
  145   144   146   147     9 
  145   144   146   148     9 
  144   146   148   149     9 
  144   146   148   150     9 
  144   146   148   161     9 
  147   146   148   149     9 
  147   146   148   150     9 
  147   146   148   161     9 
  146   148   150   151     9 
  146   148   150   152     9 
  146   148   150   153     9 
  149   148   150   151     9 
  149   148   150   152     9 
  149   148   150   153     9 
  161   148   150   151     9 
  161   148   150   152     9 
  161   148   150   153     9 
  146   148   161   162     9 
  146   148   161   163     9 
  149   148   161   162     9 
  149   148   161   163     9 
  150   148   161   162     9 
  150   148   161   163     9 
  148   150   153   154     9 
  148   150   153   159     9 
  151   150   153   154     9 
  151   150   153   159     9 
  152   150   153   154     9 
  152   150   153   159     9 
  150   153   154   155     9 
  159   153   154   155     9 
  150   153   159   157     9 
  150   153   159   160     9 
  154   153   159   157     9 
  154   153   159   160     9 
  153   154   155   156     9 
  153   154   155   157     9 
  154   155   157   158     9 
  154   155   157   159     9 
  156   155   157   158     9 
  156   155   157   159     9 
  155   157   159   153     9 
  155   157   159   160     9 
  158   157   159   153     9 
  158   157   159   160     9 
  148   161   163   164     9 
  148   161   163   165     9 
  162   161   163   164     9 
  162   161   163   165     9 
  161   163   165   166     9 
  161   163   165   167     9 
  161   163   165   180     9 
  164   163   165   166     9 
  164   163   165   167     9 
  164   163   165   180     9 
  180   165   167   170     9    torsion_LEU_C_CA_CB_CG_mult1
  180   165   167   170     9    torsion_LEU_C_CA_CB_CG_mult2
  180   165   167   170     9    torsion_LEU_C_CA_CB_CG_mult3
  163   165   167   168     9 
  163   165   167   169     9 
  163   165   167   170     9 
  166   165   167   168     9 
  166   165   167   169     9 
  166   165   167   170     9 
  180   165   167   168     9 
  180   165   167   169     9 
  163   165   180   181     9 
  163   165   180   182     9 
  166   165   180   181     9 
  166   165   180   182     9 
  167   165   180   181     9 
  167   165   180   182     9 
  165   167   170   171     9 
  165   167   170   172     9 
  165   167   170   176     9 
  168   167   170   171     9 
  168   167   170   172     9 
  168   167   170   176     9 
  169   167   170   171     9 
  169   167   170   172     9 
  169   167   170   176     9 
  167   170   172   173     9 
  167   170   172   174     9 
  167   170   172   175     9 
  171   170   172   173     9 
  171   170   172   174     9 
  171   170   172   175     9 
  176   170   172   173     9 
  176   170   172   174     9 
  176   170   172   175     9 
  167   170   176   177     9 
  167   170   176   178     9 
  167   170   176   179     9 
  171   170   176   177     9 
  171   170   176   178     9 
  171   170   176   179     9 
  172   170   176   177     9 
  172   170   176   178     9 
  172   170   176   179     9 

[ dihedrals ]
;  ai    aj    ak    al funct            c0            c1            c2            c3
    5    15    13    14     4 
    7    11    10    12     4 
   13    17    15    16     4 
   17    39    37    38     4 
   25    30    28    29     4 
   28    31    30    34     4 
   30    32    31    33     4 
   30    35    34    36     4 
   37    41    39    40     4 
   41    55    53    54     4 
   53    57    55    56     4 
   57    76    74    75     4 
   59    62    72    63     4 
   62    65    63    64     4 
   62    70    72    73     4 
   63    67    65    66     4 
   65    70    67    68     4 
   67    72    70    71     4 
   74    78    76    77     4 
   78    95    93    94     4 
   93    97    95    96     4 
   97   112   110   111     4 
   99   102   108   103     4 
  102   106   108   109     4 
  103   106   104   105     4 
  104   108   106   107     4 
  110   113   112   122     4 
  122   126   124   125     4 
  124   128   126   127     4 
  128   146   144   145     4 
  130   133   142   134     4 
  133   136   134   135     4 
  133   140   142   143     4 
  134   138   136   137     4 
  136   140   138   139     4 
  138   142   140   141     4 
  144   148   146   147     4 
  148   163   161   162     4 
  150   153   159   154     4 
  153   157   159   160     4 
  154   157   155   156     4 
  155   159   157   158     4 
  161   165   163   164     4 
  165   181   180   182     4 

; Include Position restraint file
#ifdef POSRES
#include "posre_Protein_chain_B.itp"
#endif

